3600
C44=0.35214994 nneightol=1.30000000 G=0.31207532 LatticeConstant=5.43100000 K=0.11279125 CleavagePlane="1       1       1" SurfaceEnergy=0.08485333 strain=0.08425643 OrigHeight=91.71598738 C12=0.47686847 C11=0.94460136 sigma0="-0.00108459      0.00488456     -0.00000859" OrigWidth=198.43908366 CrackFront="0       1      -1" YoungsModulus=0.89113960 CrackPos="-31.12071703      0.06710441      1.92014846" PoissonRatio_yx=0.26528430 is_cracked=F CrackDirection="-2       1       1" cutoff=-1.00000000 pbc="T T T" Lattice="398.43908366       0.00000000       0.00000000       0.00000000     291.71598738       0.00000000       0.00000000       0.00000000       3.84029693" Properties=species:S:1:pos:R:3:Z:I:1
Si            -99.21954183    -48.93792702      0.00000000      14
Si            -99.21940018    -46.58624270     -0.00000000      14
Si            -97.00221457    -45.80234009     -0.00000000      14
Si            -97.00213865    -43.45065515     -0.00000000      14
Si            -98.11068854    -42.66673384      1.92014846      14
Si            -98.11094360    -49.72182435      1.92014846      14
Si            -95.89374713    -48.93792702      1.92014846      14
Si            -95.89364675    -46.58624229      1.92014846      14
Si            -94.78495508    -42.66675977      0.00000000      14
Si            -94.78514890    -49.72182435      0.00000000      14
Si            -93.67645322    -45.80234895      1.92014846      14
Si            -93.67638766    -43.45066452      1.92014846      14
Si            -99.21922438    -39.53116116      0.00000000      14
Si            -99.21922307    -37.17948874     -0.00000000      14
Si            -97.00205187    -36.39558031      0.00000000      14
Si            -97.00205962    -34.04389831     -0.00000000      14
Si            -98.11062432    -33.25999216      1.92014846      14
Si            -98.11065919    -40.31505856      1.92014846      14
Si            -95.89348277    -39.53116495      1.92014846      14
Si            -95.89348067    -37.17948204      1.92014846      14
Si            -94.78488729    -33.25999105     -0.00000000      14
Si            -94.78491843    -40.31507451     -0.00000000      14
Si            -93.67630535    -36.39558086      1.92014846      14
Si            -93.67631497    -34.04389568      1.92014846      14
Si            -99.21921155    -30.12441870     -0.00000000      14
Si            -99.21922716    -27.77274531     -0.00000000      14
Si            -97.00205960    -26.98883241     -0.00000000      14
Si            -97.00207731    -24.63715542      0.00000000      14
Si            -98.11064889    -23.85326166      1.92014846      14
Si            -98.11064254    -30.90831405      1.92014846      14
Si            -95.89347318    -30.12440595      1.92014846      14
Si            -95.89348686    -27.77272658      1.92014846      14
Si            -94.78490158    -23.85326293     -0.00000000      14
Si            -94.78490236    -30.90830648     -0.00000000      14
Si            -93.67631241    -26.98883268      1.92014846      14
Si            -93.67632573    -24.63715653      1.92014846      14
Si            -99.21925175    -20.71770432      0.00000000      14
Si            -99.21926846    -18.36603345     -0.00000000      14
Si            -97.00209385    -17.58214016     -0.00000000      14
Si            -97.00211245    -15.23046816     -0.00000000      14
Si            -98.11068966    -14.44658664      1.92014846      14
Si            -98.11067486    -21.50158816      1.92014846      14
Si            -95.89349875    -20.71769817      1.92014846      14
Si            -95.89351555    -18.36602473      1.92014846      14
Si            -94.78493737    -14.44657641     -0.00000000      14
Si            -94.78492219    -21.50158677      0.00000000      14
Si            -93.67633846    -17.58213635      1.92014846      14
Si            -93.67635801    -15.23046247      1.92014846      14
Si            -99.21928873    -11.31103229     -0.00000000      14
Si            -99.21928895     -8.95936104     -0.00000000      14
Si            -97.00211388     -8.17546562     -0.00000000      14
Si            -97.00211473     -5.82379396     -0.00000000      14
Si            -98.11068593     -5.03990621      1.92014846      14
Si            -98.11071269    -12.09491524      1.92014846      14
Si            -95.89353655    -11.31102159      1.92014846      14
Si            -95.89353672     -8.95934892      1.92014846      14
Si            -94.78493524     -5.03991292     -0.00000000      14
Si            -94.78495799    -12.09490366     -0.00000000      14
Si            -93.67635623     -8.17546325      1.92014846      14
Si            -93.67635828     -5.82379228      1.92014846      14
Si            -99.21929136      5.82376248     -0.00000000      14
Si            -99.21929361      8.17543327     -0.00000000      14
Si            -97.00211726      8.95932537     -0.00000000      14
Si            -97.00212177     11.31099768      0.00000000      14
Si            -98.11069580     12.09488350      1.92014846      14
Si            -98.11071573      5.03988087      1.92014846      14
Si            -95.89353850      5.82377043      1.92014846      14
Si            -95.89354074      8.17544175      1.92014846      14
Si            -94.78494499     12.09488796     -0.00000000      14
Si            -94.78495561      5.03989621     -0.00000000      14
Si            -93.67636317      8.95933384      1.92014846      14
Si            -93.67636788     11.31100682      1.92014846      14
Si            -99.21927892     15.23044707     -0.00000000      14
Si            -99.21927336     17.58211893     -0.00000000      14
Si            -97.00209433     18.36600305     -0.00000000      14
Si            -97.00208381     20.71767383     -0.00000000      14
Si            -98.11065597     21.50155667      1.92014846      14
Si            -98.11070805     14.44655579      1.92014846      14
Si            -95.89352932     15.23044401      1.92014846      14
Si            -95.89352041     17.58211770      1.92014846      14
Si            -94.78490956     21.50157252     -0.00000000      14
Si            -94.78495064     14.44656085      0.00000000      14
Si            -93.67634286     18.36601456      1.92014846      14
Si            -93.67633478     20.71768856      1.92014846      14
Si            -99.21923009     24.63711049     -0.00000000      14
Si            -99.21922908     26.98878232     -0.00000000      14
Si            -97.00206102     27.77269998     -0.00000000      14
Si            -97.00206344     30.12437887     -0.00000000      14
Si            -98.11062732     30.90828282      1.92014846      14
Si            -98.11065656     23.85322741      1.92014846      14
Si            -95.89348521     24.63713537      1.92014846      14
Si            -95.89348663     26.98881186      1.92014846      14
Si            -94.78489080     30.90828619     -0.00000000      14
Si            -94.78490998     23.85324783     -0.00000000      14
Si            -93.67631282     27.77271345      1.92014846      14
Si            -93.67631774     30.12439133      1.92014846      14
Si            -99.21921083     34.04385529     -0.00000000      14
Si            -99.21921735     36.39552954     -0.00000000      14
Si            -97.00204903     37.17944743     -0.00000000      14
Si            -97.00206216     39.53112738     -0.00000000      14
Si            -98.11063535     40.31501652      1.92014846      14
Si            -98.11064122     33.25996036      1.92014846      14
Si            -95.89347028     34.04387018      1.92014846      14
Si            -95.89347520     36.39555321      1.92014846      14
Si            -94.78490002     40.31505985     -0.00000000      14
Si            -94.78489883     33.25996938     -0.00000000      14
Si            -93.67630579     37.17947263      1.92014846      14
Si            -93.67632334     39.53115936      1.92014846      14
Si            -99.21927891     43.45056022     -0.00000000      14
Si            -99.21936064     45.80223352     -0.00000000      14
Si            -97.00222025     46.58622958      0.00000000      14
Si            -97.00234537     48.93792702      0.00000000      14
Si            -98.11094360     49.72182435      1.92014846      14
Si            -98.11069194     42.66669251      1.92014846      14
Si            -95.89353822     43.45064486      1.92014846      14
Si            -95.89362539     45.80233435      1.92014846      14
Si            -94.78514890     49.72182435      0.00000000      14
Si            -94.78495430     42.66674700     -0.00000000      14
Si            -93.67645311     46.58624196      1.92014846      14
Si            -93.67655067     48.93792702      1.92014846      14
Si            -92.56795244    -48.93792702      0.00000000      14
Si            -92.56787587    -46.58624441     -0.00000000      14
Si            -90.35067649    -45.80235272      0.00000000      14
Si            -90.35062084    -43.45066464     -0.00000000      14
Si            -91.45920012    -42.66676703      1.92014846      14
Si            -91.45935420    -49.72182435      1.92014846      14
Si            -89.24215774    -48.93792702      1.92014846      14
Si            -89.24205472    -46.58623794      1.92014846      14
Si            -88.13345714    -42.66677058     -0.00000000      14
Si            -88.13355950    -49.72182435      0.00000000      14
Si            -87.02481559    -45.80238075      1.92014846      14
Si            -87.02465800    -43.45065029      1.92014846      14
Si            -92.56774148    -39.53117330     -0.00000000      14
Si            -92.56773519    -37.17948761     -0.00000000      14
Si            -90.35055385    -36.39557960     -0.00000000      14
Si            -90.35056349    -34.04388720     -0.00000000      14
Si            -91.45913982    -33.25998617      1.92014846      14
Si            -91.45917869    -40.31508028      1.92014846      14
Si            -89.24200607    -39.53117099      1.92014846      14
Si            -89.24191430    -37.17946951      1.92014846      14
Si            -88.13345476    -33.25998747      0.00000000      14
Si            -88.13326656    -40.31505794      0.00000000      14
Si            -87.02472235    -36.39562251      1.92014846      14
Si            -87.02458977    -34.04388039      1.92014846      14
Si            -92.56773263    -30.12440210     -0.00000000      14
Si            -92.56773898    -27.77272487     -0.00000000      14
Si            -90.35055397    -26.98883343      0.00000000      14
Si            -90.35056690    -24.63715239     -0.00000000      14
Si            -91.45914521    -23.85326764      1.92014846      14
Si            -91.45917395    -30.90830118      1.92014846      14
Si            -89.24201873    -30.12439207      1.92014846      14
Si            -89.24188409    -27.77269580      1.92014846      14
Si            -88.13349900    -23.85328120     -0.00000000      14
Si            -88.13319859    -30.90826937     -0.00000000      14
Si            -87.02472129    -26.98889501      1.92014846      14
Si            -87.02457322    -24.63716741      1.92014846      14
Si            -92.56774948    -20.71769868     -0.00000000      14
Si            -92.56776160    -18.36602568     -0.00000000      14
Si            -90.35057051    -17.58214465     -0.00000000      14
Si            -90.35059625    -15.23046240     -0.00000000      14
Si            -91.45917468    -14.44658013      1.92014846      14
Si            -91.45919643    -21.50159195      1.92014846      14
Si            -89.24205069    -20.71769827      1.92014846      14
Si            -89.24187129    -18.36599970      1.92014846      14
Si            -88.13356631    -14.44660636     -0.00000000      14
Si            -88.13315153    -21.50156781     -0.00000000      14
Si            -87.02473385    -17.58223301      1.92014846      14
Si            -87.02460640    -15.23050949      1.92014846      14
Si            -92.56778551    -11.31101612     -0.00000000      14
Si            -92.56777594     -8.95934635      0.00000000      14
Si            -90.35057521     -8.17547324      0.00000000      14
Si            -90.35062672     -5.82379928     -0.00000000      14
Si            -91.45918102     -5.03991256      1.92014846      14
Si            -91.45924015    -12.09490702      1.92014846      14
Si            -89.24209768    -11.31101678      1.92014846      14
Si            -89.24188441     -8.95932779      1.92014846      14
Si            -88.13353901     -5.03989900     -0.00000000      14
Si            -88.13315705    -12.09489844     -0.00000000      14
Si            -87.02463189     -8.17555271      1.92014846      14
Si            -87.02525560     -5.82391826      1.92014846      14
Si            -92.56777223      5.82378251     -0.00000000      14
Si            -92.56778306      8.17545561     -0.00000000      14
Si            -90.35062435      8.95936266     -0.00000000      14
Si            -90.35061807     11.31102589     -0.00000000      14
Si            -91.45919756     12.09490973      1.92014846      14
Si            -91.45917343      5.03991323      1.92014846      14
Si            -89.24200445      5.82380857      1.92014846      14
Si            -89.24216454      8.17545206      1.92014846      14
Si            -88.13330017     12.09494669     -0.00000000      14
Si            -88.13383005      5.03992458     -0.00000000      14
Si            -87.02492170      8.95945509      1.92014846      14
Si            -87.02491288     11.31111100      1.92014846      14
Si            -92.56776886     15.23045741     -0.00000000      14
Si            -92.56776488     17.58213236     -0.00000000      14
Si            -90.35059587     18.36603508     -0.00000000      14
Si            -90.35058333     20.71770356     -0.00000000      14
Si            -91.45916256     21.50159014      1.92014846      14
Si            -91.45916351     14.44658206      1.92014846      14
Si            -89.24194370     15.23046994      1.92014846      14
Si            -89.24208630     17.58212459      1.92014846      14
Si            -88.13329009     21.50161267     -0.00000000      14
Si            -88.13359789     14.44658993     -0.00000000      14
Si            -87.02474932     18.36606273      1.92014846      14
Si            -87.02478567     20.71775942      1.92014846      14
Si            -92.56773251     24.63714893     -0.00000000      14
Si            -92.56773804     26.98882535      0.00000000      14
Si            -90.35056830     27.77272600     -0.00000000      14
Si            -90.35056970     30.12440024     -0.00000000      14
Si            -91.45914646     30.90829800      1.92014846      14
Si            -91.45913764     23.85326501      1.92014846      14
Si            -89.24192864     24.63715572      1.92014846      14
Si            -89.24203254     26.98881910      1.92014846      14
Si            -88.13331193     30.90830792     -0.00000000      14
Si            -88.13349903     23.85327324     -0.00000000      14
Si            -87.02472475     27.77273184      1.92014846      14
Si            -87.02472497     30.12444133      1.92014846      14
Si            -92.56772506     34.04388312     -0.00000000      14
Si            -92.56773273     36.39556996     -0.00000000      14
Si            -90.35056191     37.17948519     -0.00000000      14
Si            -90.35057244     39.53117190     -0.00000000      14
Si            -91.45915363     40.31507513      1.92014846      14
Si            -91.45913953     33.25998189      1.92014846      14
Si            -89.24194124     34.04388676      1.92014846      14
Si            -89.24199870     36.39556982      1.92014846      14
Si            -88.13335142     40.31507913     -0.00000000      14
Si            -88.13342814     33.25999052      0.00000000      14
Si            -87.02472067     37.17947359      1.92014846      14
Si            -87.02467976     39.53120342      1.92014846      14
Si            -92.56778368     43.45066028     -0.00000000      14
Si            -92.56785784     45.80234693     -0.00000000      14
Si            -90.35067377     46.58624113      0.00000000      14
Si            -90.35075597     48.93792702      0.00000000      14
Si            -91.45935420     49.72182435      1.92014846      14
Si            -91.45919200     42.66676197      1.92014846      14
Si            -89.24200103     43.45066099      1.92014846      14
Si            -89.24205637     45.80234781      1.92014846      14
Si            -88.13355950     49.72182435      0.00000000      14
Si            -88.13338888     42.66677587     -0.00000000      14
Si            -87.02479071     46.58621235      1.92014846      14
Si            -87.02496127     48.93792702      1.92014846      14
Si            -85.91636304    -48.93792702      0.00000000      14
Si            -85.91588975    -46.58617428     -0.00000000      14
Si            -83.69741989    -45.80228246      0.00000000      14
Si            -83.69583443    -43.44999281     -0.00000000      14
Si            -84.80656616    -42.66687348      1.92014846      14
Si            -84.80776481    -49.72182435      1.92014846      14
Si            -82.59056834    -48.93792702      1.92014846      14
Si            -82.58590857    -46.58502563      1.92014846      14
Si            -81.47534801    -42.66654698      0.00000000      14
Si            -81.48197011    -49.72182435      0.00000000      14
Si            -80.36534714    -45.80113694      1.92014846      14
Si            -80.36043360    -43.44792041      1.92014846      14
Si            -85.91570634    -39.53128383     -0.00000000      14
Si            -85.91571056    -37.17945300     -0.00000000      14
Si            -83.69641003    -36.39570054     -0.00000000      14
Si            -83.69467852    -34.04302245     -0.00000000      14
Si            -84.80608656    -33.26012742      1.92014846      14
Si            -84.80608449    -40.31482512      1.92014846      14
Si            -82.58615824    -39.53124373      1.92014846      14
Si            -82.58332363    -37.17812130      1.92014846      14
Si            -81.47328048    -33.25997548     -0.00000000      14
Si            -81.47198032    -40.31332681     -0.00000000      14
Si            -80.36130481    -36.39509690      1.92014846      14
Si            -80.35705852    -34.04140131      1.92014846      14
Si            -85.91548660    -30.12456452     -0.00000000      14
Si            -85.91566389    -27.77272121     -0.00000000      14
Si            -83.69566295    -26.98900829      0.00000000      14
Si            -83.69353933    -24.63605391     -0.00000000      14
Si            -84.80564322    -23.85345598      1.92014846      14
Si            -84.80563872    -30.90797894      1.92014846      14
Si            -82.58493944    -30.12452592      1.92014846      14
Si            -82.58137455    -27.77102914      1.92014846      14
Si            -81.47140787    -23.85339011     -0.00000000      14
Si            -81.46940713    -30.90625682     -0.00000000      14
Si            -80.35866115    -26.98840610      1.92014846      14
Si            -80.35421405    -24.63465043      1.92014846      14
Si            -85.91527587    -20.71794013     -0.00000000      14
Si            -85.91563502    -18.36607220     -0.00000000      14
Si            -83.69496230    -17.58235021     -0.00000000      14
Si            -83.69333293    -15.22948980     -0.00000000      14
Si            -84.80521450    -14.44676249      1.92014846      14
Si            -84.80518193    -21.50120919      1.92014846      14
Si            -82.58379940    -20.71789829      1.92014846      14
Si            -82.58032385    -18.36441992      1.92014846      14
Si            -81.47318977    -14.44863292      0.00000000      14
Si            -81.46754681    -21.49960279      0.00000000      14
Si            -80.35865453    -17.58359948      1.92014846      14
Si            -80.35947867    -15.23129874      1.92014846      14
Si            -85.91501014    -11.31128809     -0.00000000      14
Si            -85.91614016     -8.95957183     -0.00000000      14
Si            -83.69861136     -8.17631350     -0.00000000      14
Si            -83.70162700     -5.82451036     -0.00000000      14
Si            -84.80866985     -5.03972419      1.92014846      14
Si            -84.80542754    -12.09470487      1.92014846      14
Si            -82.58679728    -11.31270094      1.92014846      14
Si            -82.59022870     -8.96088849      1.92014846      14
Si            -81.48653553     -5.03928386     -0.00000000      14
Si            -81.47576073    -12.09656740     -0.00000000      14
Si            -80.37488189     -8.17853437      1.92014846      14
Si            -80.38209541     -5.82687510      1.92014846      14
Si            -85.91772824      5.82430575     -0.00000000      14
Si            -85.91661154      8.17571311     -0.00000000      14
Si            -83.70210948      8.96016344     -0.00000000      14
Si            -83.70102580     11.31098004     -0.00000000      14
Si            -84.80878141     12.09504254      1.92014846      14
Si            -84.81124785      5.03907428      1.92014846      14
Si            -82.59758926      5.82473180      1.92014846      14
Si            -82.59673385      8.17568255      1.92014846      14
Si            -81.48548351     12.09646983     -0.00000000      14
Si            -81.49802359      5.03590981     -0.00000000      14
Si            -80.38171942      8.96246476      1.92014846      14
Si            -80.37840134     11.31374021      1.92014846      14
Si            -85.91671876     15.23061948     -0.00000000      14
Si            -85.91598755     17.58230678     -0.00000000      14
Si            -83.69972505     18.36607477      0.00000000      14
Si            -83.69925209     20.71762080     -0.00000000      14
Si            -84.80811265     21.50158569      1.92014846      14
Si            -84.80798838     14.44663091      1.92014846      14
Si            -82.59140891     15.23061903      1.92014846      14
Si            -82.59110169     17.58221292      1.92014846      14
Si            -81.48132517     21.50174527     -0.00000000      14
Si            -81.48272744     14.44746632     -0.00000000      14
Si            -80.37212020     18.36641864      1.92014846      14
Si            -80.37018794     20.71904812      1.92014846      14
Si            -85.91647450     24.63724322      0.00000000      14
Si            -85.91591179     26.98896158     -0.00000000      14
Si            -83.69904327     27.77272607      0.00000000      14
Si            -83.69839047     30.12448060     -0.00000000      14
Si            -84.80768705     30.90825668      1.92014846      14
Si            -84.80755111     23.85332071      1.92014846      14
Si            -82.59014884     24.63712482      1.92014846      14
Si            -82.58961095     26.98908559      1.92014846      14
Si            -81.47982906     30.90840321     -0.00000000      14
Si            -81.47978937     23.85390069     -0.00000000      14
Si            -80.36989398     27.77291208      1.92014846      14
Si            -80.36776262     30.12586231      1.92014846      14
Si            -85.91626430     34.04391629     -0.00000000      14
Si            -85.91584997     36.39567690      0.00000000      14
Si            -83.69837705     37.17945532     -0.00000000      14
Si            -83.69762063     39.53138339     -0.00000000      14
Si            -84.80727468     40.31501210      1.92014846      14
Si            -84.80717234     33.26007724      1.92014846      14
Si            -82.58916181     34.04383960      1.92014846      14
Si            -82.58821863     36.39602749      1.92014846      14
Si            -81.47867827     40.31487551     -0.00000000      14
Si            -81.47800041     33.26080951     -0.00000000      14
Si            -80.36815641     37.17947381      1.92014846      14
Si            -80.36632332     39.53230119      1.92014846      14
Si            -85.91607133     43.45063647     -0.00000000      14
Si            -85.91595224     45.80237959     -0.00000000      14
Si            -83.69837254     46.58607749     -0.00000000      14
Si            -83.69916657     48.93792702      0.00000000      14
Si            -84.80776481     49.72182435      1.92014846      14
Si            -84.80689272     42.66686462      1.92014846      14
Si            -82.58861884     43.45033384      1.92014846      14
Si            -82.58872085     45.80234769      1.92014846      14
Si            -81.48197011     49.72182435      0.00000000      14
Si            -81.47754082     42.66714575     -0.00000000      14
Si            -80.37007685     46.58541772      1.92014846      14
Si            -80.37337187     48.93792702      1.92014846      14
Si            -79.26477364    -48.93792702      0.00000000      14
Si            -79.25185560    -46.58376850     -0.00000000      14
Si            -77.02906123    -45.79862442     -0.00000000      14
Si            -77.01764676    -43.44400818     -0.00000000      14
Si            -78.13686627    -42.66453665      1.92014846      14
Si            -78.15617541    -49.72182435      1.92014846      14
Si            -75.93897894    -48.93792702      1.92014846      14
Si            -75.91522092    -46.58203794      1.92014846      14
Si            -74.79128742    -42.65958858      0.00000000      14
Si            -74.83038071    -49.72182435      0.00000000      14
Si            -73.69106089    -45.79427146      1.92014846      14
Si            -73.66968758    -43.43790056      1.92014846      14
Si            -79.24923870    -39.53003117     -0.00000000      14
Si            -79.24426750    -37.17609194     -0.00000000      14
Si            -77.01828564    -36.39365459     -0.00000000      14
Si            -77.01141078    -34.03824472     -0.00000000      14
Si            -78.13242980    -33.25852079      1.92014846      14
Si            -78.13088996    -40.31025011      1.92014846      14
Si            -75.90422514    -39.52753403      1.92014846      14
Si            -75.89602770    -37.17242391      1.92014846      14
Si            -74.78326744    -33.25506344      0.00000000      14
Si            -74.78094984    -40.30470351      0.00000000      14
Si            -73.66763642    -36.38775726      1.92014846      14
Si            -73.65695519    -34.03120264      1.92014846      14
Si            -79.24585200    -30.12324900     -0.00000000      14
Si            -79.24054693    -27.76900548     -0.00000000      14
Si            -77.01354678    -26.98742778     -0.00000000      14
Si            -77.00723343    -24.63211639     -0.00000000      14
Si            -78.12897126    -23.85280314      1.92014846      14
Si            -78.12623911    -30.90351634      1.92014846      14
Si            -75.89840917    -30.12162954      1.92014846      14
Si            -75.89008793    -27.76611024      1.92014846      14
Si            -74.77890800    -23.85185341     -0.00000000      14
Si            -74.77384189    -30.89916625      0.00000000      14
Si            -73.66116349    -26.98214606      1.92014846      14
Si            -73.65178341    -24.62616038      1.92014846      14
Si            -79.24399568    -20.71804580     -0.00000000      14
Si            -79.24235945    -18.36480897     -0.00000000      14
Si            -77.01734614    -17.58918792     -0.00000000      14
Si            -77.02357081    -15.23762653     -0.00000000      14
Si            -78.13788810    -14.45446656      1.92014846      14
Si            -78.12453506    -21.49835302      1.92014846      14
Si            -75.89729524    -20.72142077      1.92014846      14
Si            -75.89761022    -18.36887810      1.92014846      14
Si            -74.79965583    -14.46872091     -0.00000000      14
Si            -74.77381909    -21.49787705     -0.00000000      14
Si            -73.67095508    -17.59582593      1.92014846      14
Si            -73.67900931    -15.24566330      1.92014846      14
Si            -79.25741460    -11.31733815     -0.00000000      14
Si            -79.26970023     -8.96588834     -0.00000000      14
Si            -77.05721266     -8.18412218      0.00000000      14
Si            -77.07545368     -5.83226234     -0.00000000      14
Si            -78.17128955     -5.03927648      1.92014846      14
Si            -78.14780693    -12.10330276      1.92014846      14
Si            -75.92958924    -11.33066052      1.92014846      14
Si            -75.95958995     -8.97997767      1.92014846      14
Si            -74.87028487     -5.04261735     -0.00000000      14
Si            -74.82145334    -12.11929860     -0.00000000      14
Si            -73.75279743     -8.20316088      1.92014846      14
Si            -73.78620989     -5.85149438      1.92014846      14
Si            -79.28845046      5.82641751     -0.00000000      14
Si            -79.27985623      8.17739577     -0.00000000      14
Si            -77.06942928      8.97051408     -0.00000000      14
Si            -77.05480039     11.32035953     -0.00000000      14
Si            -78.16122736     12.10100330      1.92014846      14
Si            -78.19668085      5.03067830      1.92014846      14
Si            -75.99398979      5.83038518      1.92014846      14
Si            -75.97525669      8.18269707      1.92014846      14
Si            -74.83901358     12.11284968      0.00000000      14
Si            -74.91231823      5.02817727     -0.00000000      14
Si            -73.76898306      8.98298936      1.92014846      14
Si            -73.73639964     11.33267269      1.92014846      14
Si            -79.26486953     15.23269667     -0.00000000      14
Si            -79.26070330     17.58410861     -0.00000000      14
Si            -77.04070309     18.37020449     -0.00000000      14
Si            -77.03441760     20.72199610     -0.00000000      14
Si            -78.14870843     21.50286052      1.92014846      14